-- Restart input file generated by LSMS
systemid="cu"
system_title="Copper (FCC) Test for LSMS 3"
pot_in_type=1
pot_out_type=1
lsmsMode="main"
istop="main"

nscf=50
writeSteps=30000

rmsTolerance=1e-12

print_node=0
default_iprint=-1
iprint=0

iprpts=1051
ipcore=30

infoEvecFileOut="info_evec_out"

gpu_threads=16
num_atoms=1
relativity="scalar"
core_relativity="full"
mtasa=0
fixRMT=0
nspin=1
xcFunctional={0,1}

energyContour={}
energyContour.grid=2
energyContour.npts=25
energyContour.ebot=-0.500000
energyContour.etop=0.000000
energyContour.eibot=0.002500
energyContour.eitop=0.825000
energyContour.maxGroupSize=50

adjustContourBottom=-1.000000

temperature=0.000000

mixing={ {quantity = "potential", algorithm = "broyden", mixing_parameter = 0.050000}}
numberOfMixQuantities=1

bravais={}
bravais[1]={    3.415500000000000,     3.415500000000000,     0.000000000000000}
bravais[2]={    0.000000000000000,     3.415500000000000,     3.415500000000000}
bravais[3]={    3.415500000000000,     0.000000000000000,     3.415500000000000}

site={}
for i =1,num_atoms do site[i]={} end

site[1].pos={    0.000000000000000,     0.000000000000000,     0.000000000000000}
site[1].evec={    0.000000000000000,     0.000000000000000,     1.000000000000000}
site[1].atom="Cu"
site[1].lmax=3
site[1].Z=29
site[1].Zc=10
site[1].Zs=8
site[1].Zv=11
site[1].rLIZ=12.500000
site[1].rsteps={89.500000,91.500000,93.200000,99.900000}
site[1].rad=2.000000
